{
    "created_at": "2012-08-30T02:55:02.661695", 
    "version": {
        "pymatgen": "2.2.1dev", 
        "db": "2012.07.09", 
        "rest": "1.0"
    }, 
    "valid_response": true, 
    "copyright": "Copyright 2012, The Materials Project", 
    "response": [
        {
            "formation_energy_per_atom": -1.8333796954440005, 
            "elements": [
                "O", 
                "Fe"
            ], 
            "band_gap": {
                "energy": 1.5422000000000002, 
                "transition": "\\Gamma-(0.318,0.000,-0.318)", 
                "direct": false
            }, 
            "e_above_hull": 0.0, 
            "nelements": 2, 
            "pretty_formula": "Fe2O3", 
            "energy": -66.62512425, 
            "is_hubbard": true, 
            "nsites": 10, 
            "material_id": 24972, 
            "unit_cell_formula": {
                "Fe": 4.0, 
                "O": 6.0
            }, 
            "volume": 106.26838837282664, 
            "is_compatible": true, 
            "hubbards": {
                "Fe": 5.3, 
                "O": 0.0
            }, 
            "icsd_id": 245851, 
            "spacegroup": {
                "symbol": "R-3c", 
                "number": 167, 
                "point_group": "-3m", 
                "source": "spglib", 
                "crystal_system": "trigonal", 
                "hall": "-P 3* 2n"
            }, 
            "energy_per_atom": -6.662512425, 
            "full_formula": "Fe4O6", 
            "density": 4.990329676353726
        }
    ]
}