{
    "created_at": "2012-08-30T02:55:49.139558",
    "version": {
        "pymatgen": "2.2.1dev",
        "db": "2012.07.09",
        "rest": "1.0"
    },
    "valid_response": true,
    "copyright": "Copyright 2012, The Materials Project",
    "response": [
        {
            "formation_energy_per_atom": -1.7873700829440011,
            "elements": [
                "Fe",
                "O"
            ],
            "band_gap": null,
            "e_above_hull": 0.0460096124999998,
            "nelements": 2,
            "pretty_formula": "Fe2O3",
            "energy": -132.33005625,
            "is_hubbard": true,
            "nsites": 20,
            "material_id": 542309,
            "unit_cell_formula": {
                "Fe": 8.0,
                "O": 12.0
            },
            "volume": 206.71354216115657,
            "is_compatible": true,
            "hubbards": {
                "Fe": 5.3,
                "O": 0.0
            },
            "icsd_id": 96077,
            "spacegroup": {
                "symbol": "Pbna",
                "number": 60,
                "point_group": "mmm",
                "source": "spglib",
                "crystal_system": "orthorhombic",
                "hall": "-P 2ac 2b"
            },
            "energy_per_atom": -6.6165028125,
            "full_formula": "Fe8O12",
            "density": 5.130910017900618
        },
        {
            "formation_energy_per_atom": -1.8333796954440005,
            "elements": [
                "O",
                "Fe"
            ],
            "band_gap": {
                "energy": 1.5422000000000002,
                "transition": "\\Gamma-(0.318,0.000,-0.318)",
                "direct": false
            },
            "e_above_hull": 0.0,
            "nelements": 2,
            "pretty_formula": "Fe2O3",
            "energy": -66.62512425,
            "hubbards": {
                "Fe": 5.3,
                "O": 0.0
            },
            "nsites": 10,
            "material_id": 24972,
            "unit_cell_formula": {
                "Fe": 4.0,
                "O": 6.0
            },
            "volume": 106.26838837282664,
            "is_compatible": true,
            "is_hubbard": true,
            "icsd_id": 245851,
            "spacegroup": {
                "symbol": "R-3c",
                "number": 167,
                "point_group": "-3m",
                "source": "spglib",
                "crystal_system": "trigonal",
                "hall": "-P 3* 2n"
            },
            "energy_per_atom": -6.662512425,
            "full_formula": "Fe4O6",
            "density": 4.990329676353726
        }
    ]
}
