{
    "created_at": "2012-08-30T02:56:07.752723",
    "version": {
        "pymatgen": "2.2.1dev",
        "db": "2012.07.09",
        "rest": "1.0"
    },
    "valid_response": true,
    "copyright": "Copyright 2012, The Materials Project",
    "response": [
        {
            "formation_energy_per_atom": -1.844328391851428,
            "elements": [
                "Li",
                "O",
                "Fe"
            ],
            "band_gap": null,
            "e_above_hull": 0.0,
            "nelements": 3,
            "pretty_formula": "Li(FeO2)2",
            "energy": -86.38937284,
            "is_hubbard": true,
            "nsites": 14,
            "material_id": 25516,
            "unit_cell_formula": {
                "Fe": 4.0,
                "O": 8.0,
                "Li": 2.0
            },
            "volume": 150.85620884386967,
            "is_compatible": true,
            "hubbards": {
                "Fe": 5.3,
                "O": 0.0,
                "Li": 0.0
            },
            "icsd_id": null,
            "spacegroup": {
                "symbol": "Fd-3m",
                "number": 227,
                "point_group": "m-3m",
                "source": "spglib",
                "crystal_system": "cubic",
                "hall": "-F 4vw 2vw 3"
            },
            "energy_per_atom": -6.170669488571428,
            "full_formula": "Li2Fe4O8",
            "density": 4.0203707690765444
        },
        {
            "formation_energy_per_atom": -1.3262765471600002,
            "elements": [
                "O",
                "Fe"
            ],
            "band_gap": {
                "energy": 0.0,
                "transition": null,
                "direct": false
            },
            "e_above_hull": 0.20153986571000004,
            "nelements": 2,
            "pretty_formula": "FeO2",
            "energy": -18.16659569,
            "hubbards": {
                "Fe": 5.3,
                "O": 0.0
            },
            "nsites": 3,
            "material_id": 25520,
            "unit_cell_formula": {
                "Fe": 1.0,
                "O": 2.0
            },
            "volume": 36.638246798032775,
            "is_compatible": true,
            "is_hubbard": true,
            "icsd_id": null,
            "spacegroup": {
                "symbol": "R-3m",
                "number": 166,
                "point_group": "-3m",
                "source": "spglib",
                "crystal_system": "trigonal",
                "hall": "-P 3* 2"
            },
            "energy_per_atom": -6.055531896666667,
            "full_formula": "Fe1O2",
            "density": 3.9811353338618756
        },
        {
            "formation_energy_per_atom": -1.3261303071599997,
            "elements": [
                "O",
                "Fe"
            ],
            "band_gap": {
                "energy": 0.0,
                "transition": null,
                "direct": false
            },
            "e_above_hull": 0.20168610571000034,
            "nelements": 2,
            "pretty_formula": "FeO2",
            "energy": -18.16615697,
            "is_hubbard": true,
            "nsites": 3,
            "material_id": 25519,
            "unit_cell_formula": {
                "Fe": 1.0,
                "O": 2.0
            },
            "volume": 37.478891629500126,
            "is_compatible": true,
            "hubbards": {
                "Fe": 5.3,
                "O": 0.0
            },
            "icsd_id": null,
            "spacegroup": {
                "symbol": "R-3m",
                "number": 166,
                "point_group": "-3m",
                "source": "spglib",
                "crystal_system": "trigonal",
                "hall": "-P 3* 2"
            },
            "energy_per_atom": -6.055385656666666,
            "full_formula": "Fe1O2",
            "density": 3.891839180846807
        },
        {
            "formation_energy_per_atom": -1.4361213371599995,
            "elements": [
                "O",
                "Fe"
            ],
            "band_gap": null,
            "e_above_hull": 0.09169507571000057,
            "nelements": 2,
            "pretty_formula": "FeO2",
            "energy": -36.99226012,
            "hubbards": {
                "Fe": 5.3,
                "O": 0.0
            },
            "nsites": 6,
            "material_id": 25517,
            "unit_cell_formula": {
                "Fe": 2.0,
                "O": 4.0
            },
            "volume": 70.17075045588845,
            "is_compatible": true,
            "is_hubbard": true,
            "icsd_id": null,
            "spacegroup": {
                "symbol": "I4_1/amd",
                "number": 141,
                "point_group": "4/mmm",
                "source": "spglib",
                "crystal_system": "tetragonal",
                "hall": "I 4bw 2bw -1bw"
            },
            "energy_per_atom": -6.165376686666666,
            "full_formula": "Fe2O4",
            "density": 4.157339573846893
        },
        {
            "formation_energy_per_atom": -1.3750928619938458,
            "elements": [
                "Fe",
                "O"
            ],
            "band_gap": null,
            "e_above_hull": 0.3877722297792321,
            "nelements": 2,
            "pretty_formula": "Fe5O8",
            "energy": -321.4212022,
            "is_hubbard": true,
            "nsites": 52,
            "material_id": 543082,
            "unit_cell_formula": {
                "Fe": 20.0,
                "O": 32.0
            },
            "volume": 597.4625310421477,
            "is_compatible": true,
            "hubbards": {
                "Fe": 5.3,
                "O": 0.0
            },
            "icsd_id": null,
            "spacegroup": {
                "symbol": "P4_332",
                "number": 212,
                "point_group": "432",
                "source": "spglib",
                "crystal_system": "cubic",
                "hall": "P 4acd 2ab 3"
            },
            "energy_per_atom": -6.181176965384615,
            "full_formula": "Fe20O32",
            "density": 4.5269858839459145
        },
        {
            "formation_energy_per_atom": -2.101799356921,
            "elements": [
                "Li",
                "O",
                "Fe"
            ],
            "band_gap": null,
            "e_above_hull": 0.0,
            "nelements": 3,
            "pretty_formula": "Li5FeO4",
            "energy": -425.67819533,
            "hubbards": {
                "Fe": 5.3,
                "O": 0.0,
                "Li": 0.0
            },
            "nsites": 80,
            "material_id": 19511,
            "unit_cell_formula": {
                "Fe": 8.0,
                "O": 32.0,
                "Li": 40.0
            },
            "volume": 802.6707110714116,
            "is_compatible": true,
            "is_hubbard": true,
            "icsd_id": 30718,
            "spacegroup": {
                "symbol": "Pcab",
                "number": 61,
                "point_group": "mmm",
                "source": "spglib",
                "crystal_system": "orthorhombic",
                "hall": "-P 2bc 2ac"
            },
            "energy_per_atom": -5.320977441625,
            "full_formula": "Li40Fe8O32",
            "density": 2.55767492932946
        },
        {
            "formation_energy_per_atom": -2.0719809269133336,
            "elements": [
                "Li",
                "O"
            ],
            "band_gap": {
                "energy": 4.8984,
                "transition": "\\Gamma-X",
                "direct": false
            },
            "e_above_hull": 6.859999999964117e-05,
            "nelements": 2,
            "pretty_formula": "Li2O",
            "energy": -14.26352239,
            "is_hubbard": false,
            "nsites": 3,
            "material_id": 1960,
            "unit_cell_formula": {
                "O": 1.0,
                "Li": 2.0
            },
            "volume": 25.196356732396477,
            "is_compatible": true,
            "hubbards": {},
            "icsd_id": 54368,
            "spacegroup": {
                "symbol": "Fm-3m",
                "number": 225,
                "point_group": "m-3m",
                "source": "spglib",
                "crystal_system": "cubic",
                "hall": "-F 4 2 3"
            },
            "energy_per_atom": -4.754507463333334,
            "full_formula": "Li2O1",
            "density": 1.969217574674369
        },
        {
            "formation_energy_per_atom": -0.463021310493333,
            "elements": [
                "Li",
                "O"
            ],
            "band_gap": null,
            "e_above_hull": 0.7168259347533334,
            "nelements": 2,
            "pretty_formula": "LiO2",
            "energy": -11.75765641,
            "hubbards": {},
            "nsites": 3,
            "material_id": 546422,
            "unit_cell_formula": {
                "O": 2.0,
                "Li": 1.0
            },
            "volume": 25.18311096931673,
            "is_compatible": true,
            "is_hubbard": false,
            "icsd_id": 642216,
            "spacegroup": {
                "symbol": "Fm-3m",
                "number": 225,
                "point_group": "m-3m",
                "source": "spglib",
                "crystal_system": "cubic",
                "hall": "-F 4 2 3"
            },
            "energy_per_atom": -3.919218803333333,
            "full_formula": "Li1O2",
            "density": 2.5675259861730386
        },
        {
            "formation_energy_per_atom": -1.7669010104228573,
            "elements": [
                "O",
                "Fe"
            ],
            "band_gap": {
                "energy": 0.0,
                "transition": null,
                "direct": false
            },
            "e_above_hull": 0.03239538928572916,
            "nelements": 2,
            "pretty_formula": "Fe3O4",
            "energy": -92.94373664,
            "is_hubbard": true,
            "nsites": 14,
            "material_id": 19306,
            "unit_cell_formula": {
                "Fe": 6.0,
                "O": 8.0
            },
            "volume": 157.15092235175138,
            "is_compatible": true,
            "hubbards": {
                "Fe": 5.3,
                "O": 0.0
            },
            "icsd_id": 249047,
            "spacegroup": {
                "symbol": "Fd-3m",
                "number": 227,
                "point_group": "m-3m",
                "source": "spglib",
                "crystal_system": "cubic",
                "hall": "-F 4vw 2vw 3"
            },
            "energy_per_atom": -6.6388383314285715,
            "full_formula": "Fe6O8",
            "density": 4.892780360477667
        },
        {
            "formation_energy_per_atom": 0.09710225000000072,
            "elements": [
                "Fe"
            ],
            "band_gap": {
                "energy": 0.0,
                "transition": null,
                "direct": false
            },
            "e_above_hull": 0.09710225000000072,
            "nelements": 1,
            "pretty_formula": "Fe",
            "energy": -16.7278538,
            "hubbards": {},
            "nsites": 2,
            "material_id": 136,
            "unit_cell_formula": {
                "Fe": 2.0
            },
            "volume": 20.528792466628317,
            "is_compatible": true,
            "is_hubbard": false,
            "icsd_id": 631723,
            "spacegroup": {
                "symbol": "P6_3/mmc",
                "number": 194,
                "point_group": "6/mmm",
                "source": "spglib",
                "crystal_system": "hexagonal",
                "hall": "-P 6c 2c"
            },
            "energy_per_atom": -8.3639269,
            "full_formula": "Fe2",
            "density": 9.034027267871732
        },
        {
            "formation_energy_per_atom": 0.00338554000000002,
            "elements": [
                "Li"
            ],
            "band_gap": {
                "energy": 0.0,
                "transition": null,
                "direct": false
            },
            "e_above_hull": 0.00338554000000002,
            "nelements": 1,
            "pretty_formula": "Li",
            "energy": -1.90547004,
            "is_hubbard": false,
            "nsites": 1,
            "material_id": 51,
            "unit_cell_formula": {
                "Li": 1.0
            },
            "volume": 20.21536263215182,
            "is_compatible": true,
            "hubbards": {},
            "icsd_id": 642110,
            "spacegroup": {
                "symbol": "Fm-3m",
                "number": 225,
                "point_group": "m-3m",
                "source": "spglib",
                "crystal_system": "cubic",
                "hall": "-F 4 2 3"
            },
            "energy_per_atom": -1.90547004,
            "full_formula": "Li1",
            "density": 0.5701262251743832
        },
        {
            "formation_energy_per_atom": 0.0,
            "elements": [
                "Li"
            ],
            "band_gap": {
                "energy": 0.0,
                "transition": null,
                "direct": false
            },
            "e_above_hull": 0.0,
            "nelements": 1,
            "pretty_formula": "Li",
            "energy": -1.90885558,
            "hubbards": {},
            "nsites": 1,
            "material_id": 135,
            "unit_cell_formula": {
                "Li": 1.0
            },
            "volume": 20.12068741970344,
            "is_compatible": true,
            "is_hubbard": false,
            "icsd_id": 151210,
            "spacegroup": {
                "symbol": "Im-3m",
                "number": 229,
                "point_group": "m-3m",
                "source": "spglib",
                "crystal_system": "cubic",
                "hall": "-I 4 2 3"
            },
            "energy_per_atom": -1.90885558,
            "full_formula": "Li1",
            "density": 0.5728088781257888
        },
        {
            "formation_energy_per_atom": -1.6921177893514283,
            "elements": [
                "Fe",
                "O"
            ],
            "band_gap": null,
            "e_above_hull": 0.10717861035715792,
            "nelements": 2,
            "pretty_formula": "Fe3O4",
            "energy": -183.79354309,
            "is_hubbard": true,
            "nsites": 28,
            "material_id": 541907,
            "unit_cell_formula": {
                "Fe": 12.0,
                "O": 16.0
            },
            "volume": 318.98825093129375,
            "is_compatible": true,
            "hubbards": {
                "Fe": 5.3,
                "O": 0.0
            },
            "icsd_id": 87697,
            "spacegroup": {
                "symbol": "Pbcm",
                "number": 57,
                "point_group": "mmm",
                "source": "spglib",
                "crystal_system": "orthorhombic",
                "hall": "-P 2c 2b"
            },
            "energy_per_atom": -6.564055110357143,
            "full_formula": "Fe12O16",
            "density": 4.820898225992737
        },
        {
            "formation_energy_per_atom": -1.7992963997085718,
            "elements": [
                "O",
                "Fe"
            ],
            "band_gap": null,
            "e_above_hull": 1.4210854715202004e-14,
            "nelements": 2,
            "pretty_formula": "Fe3O4",
            "energy": -373.58908836,
            "hubbards": {
                "Fe": 5.3,
                "O": 0.0
            },
            "nsites": 56,
            "material_id": 31770,
            "unit_cell_formula": {
                "Fe": 24.0,
                "O": 32.0
            },
            "volume": 633.3232191028983,
            "is_compatible": true,
            "is_hubbard": true,
            "icsd_id": 35001,
            "spacegroup": {
                "symbol": "Imcm",
                "number": 74,
                "point_group": "mmm",
                "source": "spglib",
                "crystal_system": "orthorhombic",
                "hall": "-I 2 2a"
            },
            "energy_per_atom": -6.6712337207142856,
            "full_formula": "Fe24O32",
            "density": 4.856319322084879
        },
        {
            "formation_energy_per_atom": -1.7868284307800002,
            "elements": [
                "Fe",
                "O"
            ],
            "band_gap": null,
            "e_above_hull": 0.012467968928585371,
            "nelements": 2,
            "pretty_formula": "Fe3O4",
            "energy": -186.44544105,
            "is_hubbard": true,
            "nsites": 28,
            "material_id": 542433,
            "unit_cell_formula": {
                "Fe": 12.0,
                "O": 16.0
            },
            "volume": 316.1760936215709,
            "is_compatible": true,
            "hubbards": {
                "Fe": 5.3,
                "O": 0.0
            },
            "icsd_id": 98086,
            "spacegroup": {
                "symbol": "Pmmb",
                "number": 51,
                "point_group": "mmm",
                "source": "spglib",
                "crystal_system": "orthorhombic",
                "hall": "-P 2b 2"
            },
            "energy_per_atom": -6.658765751785714,
            "full_formula": "Fe12O16",
            "density": 4.863776623376828
        },
        {
            "formation_energy_per_atom": -1.7497978789942863,
            "elements": [
                "O",
                "Fe"
            ],
            "band_gap": {
                "energy": 0.5883000000000003,
                "transition": "(0.236,0.236,0.000)-Y",
                "direct": false
            },
            "e_above_hull": 0.04949852071429994,
            "nelements": 2,
            "pretty_formula": "Fe3O4",
            "energy": -92.7042928,
            "hubbards": {
                "Fe": 5.3,
                "O": 0.0
            },
            "nsites": 14,
            "material_id": 18731,
            "unit_cell_formula": {
                "Fe": 6.0,
                "O": 8.0
            },
            "volume": 144.5767022947749,
            "is_compatible": true,
            "is_hubbard": true,
            "icsd_id": 99305,
            "spacegroup": {
                "symbol": "Cmcm",
                "number": 63,
                "point_group": "mmm",
                "source": "spglib",
                "crystal_system": "orthorhombic",
                "hall": "-C 2c 2"
            },
            "energy_per_atom": -6.621735200000001,
            "full_formula": "Fe6O8",
            "density": 5.318318472542646
        },
        {
            "formation_energy_per_atom": -1.7697708678700006,
            "elements": [
                "Li",
                "O"
            ],
            "band_gap": {
                "energy": 1.9737999999999998,
                "transition": "(0.100,0.000,0.000)-\\Gamma",
                "direct": false
            },
            "e_above_hull": 0.0,
            "nelements": 2,
            "pretty_formula": "Li2O2",
            "energy": -38.71306306,
            "is_hubbard": false,
            "nsites": 8,
            "material_id": 841,
            "unit_cell_formula": {
                "O": 4.0,
                "Li": 4.0
            },
            "volume": 67.47968674947488,
            "is_compatible": true,
            "hubbards": {},
            "icsd_id": 152183,
            "spacegroup": {
                "symbol": "P6_3/mmc",
                "number": 194,
                "point_group": "6/mmm",
                "source": "spglib",
                "crystal_system": "hexagonal",
                "hall": "-P 6c 2c"
            },
            "energy_per_atom": -4.8391328825,
            "full_formula": "Li4O4",
            "density": 2.2579713654344387
        },
        {
            "formation_energy_per_atom": -1.7873700829440011,
            "elements": [
                "Fe",
                "O"
            ],
            "band_gap": null,
            "e_above_hull": 0.0460096124999998,
            "nelements": 2,
            "pretty_formula": "Fe2O3",
            "energy": -132.33005625,
            "hubbards": {
                "Fe": 5.3,
                "O": 0.0
            },
            "nsites": 20,
            "material_id": 542309,
            "unit_cell_formula": {
                "Fe": 8.0,
                "O": 12.0
            },
            "volume": 206.71354216115657,
            "is_compatible": true,
            "is_hubbard": true,
            "icsd_id": 96077,
            "spacegroup": {
                "symbol": "Pbna",
                "number": 60,
                "point_group": "mmm",
                "source": "spglib",
                "crystal_system": "orthorhombic",
                "hall": "-P 2ac 2b"
            },
            "energy_per_atom": -6.6165028125,
            "full_formula": "Fe8O12",
            "density": 5.130910017900618
        },
        {
            "formation_energy_per_atom": 0.0,
            "elements": [
                "Fe"
            ],
            "band_gap": {
                "energy": 0.0,
                "transition": null,
                "direct": false
            },
            "e_above_hull": 0.0,
            "nelements": 1,
            "pretty_formula": "Fe",
            "energy": -8.46102915,
            "is_hubbard": false,
            "nsites": 1,
            "material_id": 13,
            "unit_cell_formula": {
                "Fe": 1.0
            },
            "volume": 11.55162296798055,
            "is_compatible": true,
            "hubbards": {},
            "icsd_id": 159354,
            "spacegroup": {
                "symbol": "Im-3m",
                "number": 229,
                "point_group": "m-3m",
                "source": "spglib",
                "crystal_system": "cubic",
                "hall": "-I 4 2 3"
            },
            "energy_per_atom": -8.46102915,
            "full_formula": "Fe1",
            "density": 8.027342626835301
        },
        {
            "formation_energy_per_atom": -1.2569602903700003,
            "elements": [
                "O",
                "Fe"
            ],
            "band_gap": {
                "energy": 0.0,
                "transition": null,
                "direct": false
            },
            "e_above_hull": 0.31742405937499996,
            "nelements": 2,
            "pretty_formula": "FeO",
            "energy": -12.47181818,
            "hubbards": {
                "Fe": 5.3,
                "O": 0.0
            },
            "nsites": 2,
            "material_id": 18905,
            "unit_cell_formula": {
                "Fe": 1.0,
                "O": 1.0
            },
            "volume": 20.112120746006816,
            "is_compatible": true,
            "is_hubbard": true,
            "icsd_id": 633038,
            "spacegroup": {
                "symbol": "Fm-3m",
                "number": 225,
                "point_group": "m-3m",
                "source": "spglib",
                "crystal_system": "cubic",
                "hall": "-F 4 2 3"
            },
            "energy_per_atom": -6.23590909,
            "full_formula": "Fe1O1",
            "density": 5.9315140698369975
        },
        {
            "formation_energy_per_atom": 0.0,
            "elements": [
                "O"
            ],
            "band_gap": {
                "energy": 1.3309,
                "transition": "\\Gamma-M",
                "direct": false
            },
            "e_above_hull": 0.0,
            "nelements": 1,
            "pretty_formula": "O2",
            "energy": -39.48422335,
            "is_hubbard": false,
            "nsites": 8,
            "material_id": 12957,
            "unit_cell_formula": {
                "O": 8.0
            },
            "volume": 107.64379009571304,
            "is_compatible": true,
            "hubbards": {},
            "icsd_id": 156481,
            "spacegroup": {
                "symbol": "C2/m",
                "number": 12,
                "point_group": "2/m",
                "source": "spglib",
                "crystal_system": "monoclinic",
                "hall": "-C 2y"
            },
            "energy_per_atom": -4.93552791875,
            "full_formula": "O8",
            "density": 1.9744003213248449
        },
        {
            "formation_energy_per_atom": 0.0032915799999999606,
            "elements": [
                "Li"
            ],
            "band_gap": {
                "energy": 0.0,
                "transition": null,
                "direct": false
            },
            "e_above_hull": 0.0032915799999999606,
            "nelements": 1,
            "pretty_formula": "Li",
            "energy": -3.811128,
            "hubbards": {},
            "nsites": 2,
            "material_id": 10173,
            "unit_cell_formula": {
                "Li": 2.0
            },
            "volume": 40.37967757220223,
            "is_compatible": true,
            "is_hubbard": false,
            "icsd_id": 76947,
            "spacegroup": {
                "symbol": "P6_3/mmc",
                "number": 194,
                "point_group": "6/mmm",
                "source": "spglib",
                "crystal_system": "hexagonal",
                "hall": "-P 6c 2c"
            },
            "energy_per_atom": -1.905564,
            "full_formula": "Li2",
            "density": 0.5708469745649547
        },
        {
            "formation_energy_per_atom": -1.6782769023946675,
            "elements": [
                "Fe",
                "O"
            ],
            "band_gap": null,
            "e_above_hull": 0.0010664039999985775,
            "nelements": 2,
            "pretty_formula": "Fe7O8",
            "energy": -99.10930518,
            "is_hubbard": true,
            "nsites": 15,
            "material_id": 32939,
            "unit_cell_formula": {
                "Fe": 7.0,
                "O": 8.0
            },
            "volume": 163.15724775261543,
            "is_compatible": true,
            "hubbards": {
                "Fe": 5.3,
                "O": 0.0
            },
            "icsd_id": null,
            "spacegroup": {
                "symbol": "Fm-3m",
                "number": 225,
                "point_group": "m-3m",
                "source": "spglib",
                "crystal_system": "cubic",
                "hall": "-F 4 2 3"
            },
            "energy_per_atom": -6.6072870120000005,
            "full_formula": "Fe7O8",
            "density": 5.28100218557277
        },
        {
            "formation_energy_per_atom": -1.9024620961371437,
            "elements": [
                "Li",
                "O",
                "Fe"
            ],
            "band_gap": null,
            "e_above_hull": 0.0,
            "nelements": 3,
            "pretty_formula": "LiFe5O8",
            "energy": -364.08967308,
            "hubbards": {
                "Fe": 5.3,
                "O": 0.0,
                "Li": 0.0
            },
            "nsites": 56,
            "material_id": 31768,
            "unit_cell_formula": {
                "Fe": 20.0,
                "O": 32.0,
                "Li": 4.0
            },
            "volume": 611.5192020073234,
            "is_compatible": true,
            "is_hubbard": true,
            "icsd_id": 162806,
            "spacegroup": {
                "symbol": "P4_332",
                "number": 212,
                "point_group": "432",
                "source": "spglib",
                "crystal_system": "cubic",
                "hall": "P 4acd 2ab 3"
            },
            "energy_per_atom": -6.501601305,
            "full_formula": "Li4Fe20O32",
            "density": 4.498314474405428
        },
        {
            "formation_energy_per_atom": -1.8333796954440005,
            "elements": [
                "O",
                "Fe"
            ],
            "band_gap": {
                "energy": 1.5422000000000002,
                "transition": "\\Gamma-(0.318,0.000,-0.318)",
                "direct": false
            },
            "e_above_hull": 0.0,
            "nelements": 2,
            "pretty_formula": "Fe2O3",
            "energy": -66.62512425,
            "is_hubbard": true,
            "nsites": 10,
            "material_id": 24972,
            "unit_cell_formula": {
                "Fe": 4.0,
                "O": 6.0
            },
            "volume": 106.26838837282664,
            "is_compatible": true,
            "hubbards": {
                "Fe": 5.3,
                "O": 0.0
            },
            "icsd_id": 245851,
            "spacegroup": {
                "symbol": "R-3c",
                "number": 167,
                "point_group": "-3m",
                "source": "spglib",
                "crystal_system": "trigonal",
                "hall": "-P 3* 2n"
            },
            "energy_per_atom": -6.662512425,
            "full_formula": "Fe4O6",
            "density": 4.990329676353726
        },
        {
            "formation_energy_per_atom": 0.14836486999999998,
            "elements": [
                "Fe"
            ],
            "band_gap": {
                "energy": 0.0,
                "transition": null,
                "direct": false
            },
            "e_above_hull": 0.14836486999999998,
            "nelements": 1,
            "pretty_formula": "Fe",
            "energy": -8.31266428,
            "hubbards": {},
            "nsites": 1,
            "material_id": 150,
            "unit_cell_formula": {
                "Fe": 1.0
            },
            "volume": 12.11386448378094,
            "is_compatible": true,
            "is_hubbard": false,
            "icsd_id": 631733,
            "spacegroup": {
                "symbol": "Fm-3m",
                "number": 225,
                "point_group": "m-3m",
                "source": "spglib",
                "crystal_system": "cubic",
                "hall": "-F 4 2 3"
            },
            "energy_per_atom": -8.31266428,
            "full_formula": "Fe1",
            "density": 7.654769094053608
        },
        {
            "formation_energy_per_atom": -2.0604177528699994,
            "elements": [
                "Li",
                "O",
                "Fe"
            ],
            "band_gap": null,
            "e_above_hull": 0.0,
            "nelements": 3,
            "pretty_formula": "LiFeO2",
            "energy": -48.67658528,
            "is_hubbard": true,
            "nsites": 8,
            "material_id": 18782,
            "unit_cell_formula": {
                "Fe": 2.0,
                "O": 4.0,
                "Li": 2.0
            },
            "volume": 74.62006288155635,
            "is_compatible": true,
            "hubbards": {
                "Fe": 5.3,
                "O": 0.0,
                "Li": 0.0
            },
            "icsd_id": 632440,
            "spacegroup": {
                "symbol": "I4_1/amd",
                "number": 141,
                "point_group": "4/mmm",
                "source": "spglib",
                "crystal_system": "tetragonal",
                "hall": "-I 4bd 2"
            },
            "energy_per_atom": -6.08457316,
            "full_formula": "Li2Fe2O4",
            "density": 4.218359545909763
        },
        {
            "formation_energy_per_atom": -2.0720495269133337,
            "elements": [
                "O",
                "Li"
            ],
            "band_gap": null,
            "e_above_hull": 0.0,
            "nelements": 2,
            "pretty_formula": "Li2O",
            "energy": -14.26372819,
            "hubbards": {},
            "nsites": 3,
            "material_id": 553090,
            "unit_cell_formula": {
                "O": 1.0,
                "Li": 2.0
            },
            "volume": 25.279668381289053,
            "is_compatible": true,
            "is_hubbard": false,
            "icsd_id": 108886,
            "spacegroup": {
                "symbol": "Fm-3m",
                "number": 225,
                "point_group": "m-3m",
                "source": "spglib",
                "crystal_system": "cubic",
                "hall": "-F 4 2 3"
            },
            "energy_per_atom": -4.754576063333333,
            "full_formula": "Li2O1",
            "density": 1.962727823278113
        },
        {
            "formation_energy_per_atom": -1.4982303953699994,
            "elements": [
                "Li",
                "O",
                "Fe"
            ],
            "band_gap": null,
            "e_above_hull": 0.5621873575,
            "nelements": 3,
            "pretty_formula": "LiFeO2",
            "energy": -22.08954321,
            "is_hubbard": true,
            "nsites": 4,
            "material_id": 19419,
            "unit_cell_formula": {
                "Fe": 1.0,
                "O": 2.0,
                "Li": 1.0
            },
            "volume": 33.75496397013064,
            "is_compatible": true,
            "hubbards": {
                "Fe": 5.3,
                "O": 0.0,
                "Li": 0.0
            },
            "icsd_id": 51767,
            "spacegroup": {
                "symbol": "R-3m",
                "number": 166,
                "point_group": "-3m",
                "source": "spglib",
                "crystal_system": "trigonal",
                "hall": "-P 3* 2"
            },
            "energy_per_atom": -5.5223858025,
            "full_formula": "Li1Fe1O2",
            "density": 4.662636506608924
        },
        {
            "formation_energy_per_atom": -1.890140609708572,
            "elements": [
                "Fe",
                "Li",
                "O"
            ],
            "band_gap": null,
            "e_above_hull": 0.012321486428572115,
            "nelements": 3,
            "pretty_formula": "LiFe5O8",
            "energy": -90.84991746,
            "hubbards": {
                "Fe": 5.3,
                "O": 0.0,
                "Li": 0.0
            },
            "nsites": 14,
            "material_id": 33551,
            "unit_cell_formula": {
                "Fe": 5.0,
                "O": 8.0,
                "Li": 1.0
            },
            "volume": 152.78885416241974,
            "is_compatible": true,
            "is_hubbard": true,
            "icsd_id": null,
            "spacegroup": {
                "symbol": "R-3m",
                "number": 166,
                "point_group": "-3m",
                "source": "spglib",
                "crystal_system": "trigonal",
                "hall": "-P 3* 2"
            },
            "energy_per_atom": -6.489279818571428,
            "full_formula": "Li1Fe5O8",
            "density": 4.500992060000333
        }
    ]
}
